% Model:              Spiral_model_stationary3.mph
% Version:            COMSOL 5.6.0.341
% Date:               Jul 2 2021, 11:27
% Table:              Evaluation Group 1 - 
% bone_R                 n                        V/impulse (Ω)            V/impulse (Ω)            V/impulse (Ω)            V/impulse (Ω)            V/impulse (Ω)            V/impulse (Ω)            V/impulse (Ω)            V/impulse (Ω)            V/impulse (Ω)            V/impulse (Ω)            V/impulse (Ω)            V/impulse (Ω)            V/impulse (Ω)            V/impulse (Ω)            V/impulse (Ω)            V/impulse (Ω)
0.166667                 1                        575.2142701772191        258.05582295893294       185.53868226429498       134.71534115701226       100.08476703638061       78.21403079696381        65.37794628483513        59.37218130883476        58.62741698503985        62.28434522079112        69.53717949530427        79.2786562086178         89.4186176414531         98.76795079678689        105.3572453074684        107.86697781450228
0.166667                 2                        258.0558224095769        576.2253575843922        227.97267957993324       150.754236817181         107.3547367115485        81.72377643787522        67.06756017467002        60.04830679251957        58.549921544623686       61.41137225462078        67.66411180534175        76.13364474970568        84.87731761069834        92.82645280770116        98.30974210955954        100.29000405358455
0.166667                 3                        185.538682336019         227.9726800190758        549.1368136420666        192.50888714645717       122.93658082978652       88.67759422529586        70.3003896801342         61.332671073914625       58.442239001677905       59.889611489697224       64.44381651855996        70.8676700899736         77.49570481648801        83.44800109021939        87.43928245504878        88.70599226021025
0.166667                 4                        134.7153410787421        150.7542364917599        192.5088860079946        518.8408684726221        165.13583057908497       104.19549885813538       77.16355057739867        64.31983673990085        58.998065358645086       58.26217390876941        60.453196857781975       64.26559812309556        68.37194470026483        72.06087919214646        74.41417668833289        74.87321736769209
0.166667                 5                        100.08476657737997       107.3547369761341        122.9365817557424        165.13583013952652       497.56988114684884       146.80670201623533       92.91920332821886        71.39104541167991        61.76020204638374        57.92680627207737        57.34442781121598        58.50392840312533        60.28920032464385        62.013360147830085       62.98345549114086        62.73491891016595
0.166667                 6                        78.21402981395974        81.7237764098627         88.6775942464562         104.19550115239896       146.80670182952983       487.78761505900206       136.4215123293369        88.0180744615724         69.19024981294974        60.444344334508365       56.50668101652744        55.05522004161195        54.84083091696301        54.99094431162299        54.883850812231714       54.05607390240019
0.166667                 7                        65.37794599846688        67.06756071381558        70.30039053820907        77.1635503708212         92.9192015027766         136.42151427278998       481.49586768200453       133.19275737930977       86.80648218793381        68.28039617780892        59.43987778310483        54.9714078833407         52.78137487067186        51.5087448589959         50.455364081541475       49.07415718084534
0.166667                 8                        59.37218168861184        60.048307191834205       61.33267015575521        64.31983825058968        71.39104546164162        88.01807556438135        133.19275819987027       483.1369054666569        133.45878892556078       86.88675424711418        68.58010584365914        59.563302984333          54.862490844706784       51.962706259708725       49.86193302376685        47.80598665472464
0.166667                 9                        58.627416642036174       58.5499213589101         58.442239107067444       58.99806936644413        61.760201854907514       69.19024983147834        86.80648083211685        133.45878839790498       485.1305889214048        134.77794792358364       89.2019263942449         70.92513374325296        62.02891739237613        56.723171510103505       53.153223814250026       50.107169473975524
0.166667                 10                       62.2843450449034         61.411372192057165       59.88961344789503        58.262166845305295       57.92680522051941        60.4443430282149         68.28039667141428        86.8867539252078         134.77794625288485       490.18631753059697       140.82611401894908       94.64676418568598        76.59052514439573        66.84039159073           60.79575624794311        56.121851273268454
0.166667                 11                       69.53718018635709        67.66411220354152        64.44381412104313        60.45319661634853        57.344427688184254       56.50668200350748        59.43988132884587        68.58010588747872        89.20192350995632        140.82611058146784       503.2025402561887        148.9798565470634        103.57643499520712       84.07582981876193        73.41054531296147        65.96090031918786
0.166667                 12                       79.27865623064685        76.1336444556881         70.86767036163943        64.26559221351303        58.503927782754715       55.05522160901899        54.971408367374565       59.563302915010375       70.92513338420946        94.6467639990509         148.97985453312208       513.3999682548302        162.19012880911728       113.2271593825755        92.50667402480161        79.98188878053601
0.166667                 13                       89.41861678470242        84.87731794880506        77.49570509652033        68.37195545244735        60.28920123713936        54.84082821425537        52.78137440393605        54.86248928321813        62.02891788425996        76.5905270336564         103.5764371872093        162.190129560842         525.921986136908         169.24044767733966       120.75868468464576       98.25450741618499
0.166667                 14                       98.76795050959451        92.8264532021199         83.44799997631941        72.06087977848739        62.01335975928235        54.99094684861752        51.5087423281432         51.962706778510835       56.72317155453117        66.84039310791182        84.07583126250081        113.22715843990864       169.24044652201758       533.5102853287435        176.88203440999186       125.5811472870094
0.166667                 15                       105.35724601417871       98.30974185158875        87.43928208882485        74.41417366395784        62.98345500053014        54.8838511617935         50.45536435674298        49.861931952421756       53.1532239055494         60.79575542292733        73.41054479677912        92.50667405096468        120.7586836280822        176.88203324719754       541.6220196426071        177.92492570490634
0.166667                 16                       107.86697822269407       100.29000342891203       88.70599263838966        74.87321363629792        62.73491988013357        54.05607090759824        49.074159003423155       47.805986284204          50.10716994400554        56.121849801353704       65.96089919322529        79.98188823340149        98.2545073960562         125.58114701471847       177.9249262331123        546.4737461723767
0.010753                 1                        2070.857168757556        1672.1714973812245       1488.6202272423875       1328.3857076725992       1190.817458447734        1075.2400017783975       982.5448369026659        914.0375025621146        866.7126210553683        835.7490627748632        817.2650334780044        806.4827342423158        799.4126330150565        791.7444398568222        780.5212808579895        762.8825850994865
0.010753                 2                        1672.1715082784174       1994.1331363053139       1563.7824512653171       1375.6099270241502       1223.0830682123615       1097.4704595391838       997.4717039348908        923.3245284912748        871.3039752128537        836.1291568019451        813.8223060221691        799.5477734166069        789.5258339303423        779.4050662379567        766.5199556334949        748.1693073574019
0.010753                 3                        1488.6202373715964       1563.7824480260867       1879.6715458156307       1441.7309134887328       1264.1406963441614       1125.478670624016        1016.4831772445621       935.4787949479922        877.7799986612008        837.5360884004214        810.6473087082412        792.1989808800092        778.644389371023         765.5504777434583        750.5584850751633        731.1099892225736
0.010753                 4                        1328.385704542891        1375.6099219027026       1441.7309057165357       1759.0294116812004       1327.7242635928537       1164.7823977933213       1043.2448289006343       953.3464505956348        888.4679174342635        841.9215978219834        809.4196311546036        785.9187202890986        768.1097048178709        751.400106096733         733.7327966242509        712.6495826514355
0.010753                 5                        1190.817450821926        1223.0830473145909       1264.1406785220825       1327.7242587810458       1653.196747941032        1230.9244480401007       1084.529111584997        981.8098090945583        907.5058945927661        853.0332962614478        813.6835908633216        784.1595231167297        761.3412986596645        740.3531754198285        719.4044714278918        696.0713411654153
0.010753                 6                        1075.2400238969524       1097.4704731806742       1125.4786812607178       1164.7824177755977       1230.924472088974        1571.6693697188157       1157.284821748164        1028.6778140930933       940.6772807969493        875.8653771861057        828.0355620400991        791.2865019280815        762.5585232551193        736.5166579124126        711.5860233613273        685.2993633176535
0.010753                 7                        982.5448229087691        997.4716799706287        1016.4831532785392       1043.2448159480193       1084.5291062948563       1157.2847933720373       1510.9775852663834       1110.493043352855        995.2702689752376        915.8072692531855        857.2340950833817        811.7450693911906        776.0104412930414        743.9848383517322        714.2418914864253        684.1804797203459
0.010753                 8                        914.0375264082927        923.3245465164666        935.4788063528867        953.3464721184318        981.8098358379588        1028.6778199818873       1110.4930743212926       1477.5319701242393       1085.4099207636552       977.9057299631528        904.7393313113337        848.5606090676738        804.5480074994039        765.500565788993         730.0323930805422        695.301231780582
0.010753                 9                        866.7126255367049        871.303973404682         877.7799938787336        888.4679205824658        907.505901073924         940.6772683571301        995.2702809020163        1085.4099050370164       1460.8387053949298       1074.8778295128448       974.2415007218783        903.6772598352854        849.55522148979          802.1454842753008        759.8382023899005        719.3968079945317
0.010753                 10                       835.7490678834806        836.1291526355546        837.5360831132166        841.9216011134214        853.033302076335         875.8653655904967        915.8072842745395        977.9057156747422        1074.8778275006803       1458.9821394358016       1079.3023613380308       980.9395518980531        912.8878291446141        854.999689126441         804.3011538766491        756.8045064882085
0.010753                 11                       817.2650388516058        813.8223039333428        810.6473061747162        809.4196382994987        813.6836007501415        828.0355530825806        857.2341109057733        904.7393170324555        974.2414985305944        1079.302361175143        1472.435841986044        1090.1596323007677       995.2802330360847        923.1050711755462        862.0493292999648        806.0283301852528
0.010753                 12                       806.482738552697         799.5477686531598        792.19897352036          785.9187244467246        784.1595296319151        791.2864885599807        811.7450805795899        848.5605920851033        903.6772539700573        980.9395489221661        1090.159628790219        1485.7807220353793       1108.5108594919861       1007.9223269217559       932.6364749637485        866.0772382207298
0.010753                 13                       799.4126375828803        789.5258306993663        778.6443834840745        768.1097104969457        761.3413082091237        762.5585144050625        776.0104558698661        804.5479939031267        849.5552199604189        912.8878298198031        995.2802321203935        1108.5108621175918       1500.3519399009028       1115.133908565963        1013.1596277988077       932.9074536325969
0.010753                 14                       791.7444424721025        779.4050634248134        765.5504724068911        751.4001116568769        740.3531853819379        736.5166480616647        743.9848528444464        765.5005500613798        802.1454792272799        854.9996901843068        923.1050704668753        1007.9223292722161       1115.1339082678978       1506.7300656882808       1119.8294200791931       1012.0425873957345
0.010753                 15                       780.5212912812892        766.5199599511119        750.5584875269368        733.7328098224585        719.40448771207          711.5860207285574        714.2419132205166        730.0323859713861        759.8382072835659        804.3011613720155        862.0493353352794        932.6364821715424        1013.1596331429861       1119.8294281314616       1509.510970896914        1112.6402679729667
0.010753                 16                       762.8825899313663        748.1693065396721        731.1099865565033        712.6495902358537        696.0713504473442        685.2993547994079        684.1804936851244        695.3012204242195        719.3968057061419        756.8045065820886        806.0283320012622        866.077240835587         932.9074562532968        1012.0425898684305       1112.6402642580963       1505.099700120059
0.003759                 1                        4059.987893230243        3615.009241928164        3379.2339953079468       3164.5013449167573       2971.5176775748037       2799.7755455900906       2651.3619383923838       2529.7940224289155       2432.767638816721        2354.768643686143        2292.610501113011        2240.9495126452985       2197.2903747408263       2154.908413371466        2112.315471296851        2066.292456817694
0.003759                 2                        3615.0092583307514       3910.6466893495644       3441.104255010656        3205.778488974066        3002.0281744410445       2822.6028220346125       2668.1271018026982       2541.5248401913504       2440.100659267718        2358.0773132423365       2292.269525904515        2237.305843372189        2190.861954602443        2146.106736483383        2101.7428352578972       2054.607052457772
0.003759                 3                        3379.2340331935416       3441.1042723458977       3734.080806526828        3260.114056869024        3037.6314766885766       2848.8590675855394       2687.5259510368246       2555.3010269537826       2448.9738370849072       2362.463704330636        2292.583600523756        2233.9269258098716       2184.3540529174284       2136.901861963201        2090.4724658590294       2041.9492782449522
0.003759                 4                        3164.5013798345735       3205.7785050921293       3260.114055393245        3555.784415717058        3089.760953067657        2882.684811904624        2712.416617318863        2573.521410138925        2461.498564751465        2369.812969845044        2295.2529345975677       2232.357363433671        2179.181542964381        2128.5861684276874       2079.6768380091767       2029.3632113432827
0.003759                 5                        2971.517657107919        3002.028128044072        3037.6314118948767       3089.760883636091        3394.195518754677        2937.821584585148        2748.7048172508694       2600.7319285492954       2481.7734165131387       2383.9841609902414       2303.9836699192497       2236.1977269014637       2178.8678234680688       2124.6120919186937       2072.734478732214        2020.1402828365865
0.003759                 6                        2799.7754841146902       2822.6027356629384       2848.8589714935947       2882.6847165456156       2937.821557628769        3258.5613459084225       2811.8608767333385       2644.2245564062064       2515.581036371407        2410.2424277434448       2323.7654813285108       2250.2485215054976       2188.071989172436        2129.517094437187        2074.0773886084958       2018.6168516574432
0.003759                 7                        2651.3618679877304       2668.1269973706467       2687.5258408280315       2712.416509882978        2748.7047758358          2811.8608575036624       3147.9965800815276       2719.0964257859737       2569.610789968639        2453.828156618354        2359.4466373645228       2279.1806204476766       2211.3516674814377       2147.76538758997         2088.0885171858795       2029.1004098100927
0.003759                 8                        2529.7939917580625       2541.524779726483        2555.3009567745653       2573.5213413921583       2600.731929882393        2644.224578868521        2719.0964697994877       3072.317669271407        2656.266421110102        2518.7323834756194       2413.79432715543         2325.5515192788225       2251.2398337565223       2181.8998490798226       2117.3245422688833       2054.157349618511
0.003759                 9                        2432.767603965476        2440.100589090344        2448.973765466436        2461.4984924976134       2481.7734109225967       2515.5810530007648       2569.610829140841        2656.266420377066        3021.698556838042        2615.6020259667907       2489.103169347687        2390.3237463651813       2308.4110408215274       2232.4975807278834       2162.316271779282        2094.2923552930233
0.003759                 10                       2354.7686837426545       2358.0773139200755       2362.4637117415054       2369.812976453072        2383.9842340246587       2410.242521649555        2453.828273922499        2518.7324577477784       2615.6020904988786       2992.91597628489         2596.7321723111136       2475.88566022681         2383.7233827120117       2299.969763714165        2223.272599662761        2149.5844594921605
0.003759                 11                       2292.6106030562632       2292.2695832842646       2292.5836557778807       2295.2529911459606       2303.9837820813214       2323.765610637566        2359.4467879778376       2413.794438283594        2489.103271117906        2596.732210898532        2985.679963808272        2589.727920299965        2476.0937938341244       2381.865947928335        2297.54850117824         2217.417854123414
0.003759                 12                       2240.949554579041        2237.305838451918        2233.9269270960813       2232.3573662881895       2236.19778363148         2250.248591550437        2279.1807085855844       2325.551568877629        2390.323783629609        2475.885633797135        2589.7278578739233       2983.3185462974843       2595.4808690336154       2478.346100044396        2383.7112975874766       2296.022185889428
0.003759                 13                       2197.290447559062        2190.861977266608        2184.354085665031        2179.1815851159263       2178.8679214973713       2188.0721005785877       2211.3517969822287       2251.239922478063        2308.411114836098        2383.7233950847112       2476.0937775030816       2595.480910660135        2987.109909940024        2593.2446152392754       2477.1732755494527       2379.7186470322536
0.003759                 14                       2154.9084265061733       2146.1066971347595       2136.9018378414444       2128.5861464243          2124.6121232520277       2129.517141308215        2147.7654516675816       2181.899869485932        2232.4975890787373       2299.969704198291        2381.8658627619843       2478.3460745303078       2593.2445464765365       2986.8157046311594       2593.761758836065        2474.2636723022983
0.003759                 15                       2112.3154838291707       2101.7427984472374       2090.472443031847        2079.67681631558         2072.7345104455867       2074.0774359884003       2088.088574361637        2117.324560385956        2162.3162792520757       2223.272536106601        2297.5484126857627       2383.711265207549        2477.173205895455        2593.7617563372287       2987.6817965836754       2587.058931480452
0.003759                 16                       2066.292416011218        2054.6069672387575       2041.949202540782        2029.3631418667992       2020.140263045996        2018.6168473789317       2029.1004137682826       2054.1573218780454       2094.292320483           2149.584356467585        2217.417730455085        2296.022115764683        2379.7185402805585       2474.263628019091        2587.0588954306736       2986.433110093591
