% Model:              Spiral_model_stationary3.mph
% Version:            COMSOL 5.6.0.341
% Date:               Jul 2 2021, 11:05
% Table:              Evaluation Group 1 - 
% bone_R                 n                        V/impulse (Ω)            V/impulse (Ω)            V/impulse (Ω)            V/impulse (Ω)            V/impulse (Ω)            V/impulse (Ω)            V/impulse (Ω)            V/impulse (Ω)            V/impulse (Ω)            V/impulse (Ω)            V/impulse (Ω)            V/impulse (Ω)            V/impulse (Ω)            V/impulse (Ω)            V/impulse (Ω)            V/impulse (Ω)
0.166667                 1                        621.882040111879         264.3118407463919        190.75747156567414       142.31042568170392       108.56679373998719       86.03070639415658        71.4628920005103         64.05989911869624        62.5632076826121         66.13898139482895        73.72745284210588        84.21891576160128        95.34769774910556        105.2634823666153        112.20454962540592       114.7672046307212
0.166667                 2                        264.3118422108423        616.1890716145339        235.0634796602102        157.58840648612983       115.49766977987755       89.35620065444121        73.02004540367956        64.65174845663694        62.424963757790685       65.20233523168767        71.7675735781009         80.92023463872451        90.53353021505121        98.95025286767783        104.70504830936852       106.70022727191646
0.166667                 3                        190.75746564655063       235.06347818916024       595.2763558094106        202.44867282021775       130.51501487308337       95.90936327174214        76.008352202347          65.81042694265825        62.25222082613459        63.630709301437136       68.48678772001473        75.52598916887555        82.89152074129075        89.22439624045671        93.41834387393376        94.65869637466001
0.166667                 4                        142.31042422878917       157.58840498708187       202.44867353059826       564.6782162633023        176.62543752069266       110.65191902782215       82.19730784115316        68.42400431926913        62.61105836922939        61.901225978235466       64.45765357287722        68.88524002328359        73.65703948789573        77.70850231327637        80.2513305433298         80.6745229088262
0.166667                 5                        108.56679262794785       115.49766980696715       130.51501161938214       176.62543520252007       542.3272109579766        158.45710531660913       97.55538200247929        74.9215051911336         64.96580871302761        61.27854607530269        61.15322499341213        62.9520615381284         65.35680332417273        67.44514581423873        68.6065321044426         68.32577756565613
0.166667                 6                        86.03070544867457        89.35620013398865        95.90936672905366        110.65191769378944       158.45710462680395       535.8948354002925        148.8341310442552        92.6049902674057         72.38415677787766        63.51438611257986        59.9293176062365         59.02953393514869        59.33613886963253        59.82006439751447        59.89325905517034        59.044367830004695
0.166667                 7                        71.46289561880397        73.02004549920663        76.0083517917618         82.1973082919331         97.55538278408414        148.83413322188736       528.722734377507         148.8407547032972        92.44573109634436        71.71269868234518        62.45194927131336        58.17088782517062        56.299638323380364       55.28935190018468        54.39694155408677        53.02139244158397
0.166667                 8                        64.05989923464271        64.65174543054506        65.81042589107572        68.42400507706346        74.92150741258467        92.60499066393407        148.84075546523871       542.2767085543566        151.4646771071918        93.04179078288662        71.8590845475136         62.232610759077204       57.566311836054545       54.863756999034436       52.9258254558351         50.91696911342863
0.166667                 9                        62.56320981424656        62.424964141339586       62.25222230774236        62.61105861028894        64.96580955446142        72.3841562287222         92.44572968454709        151.46467636016018       549.0888864432491        153.45867035467595       94.97198547266984        73.79464789421435        64.32817689557021        59.110336011130904       55.71471378277229        52.761903323805825
0.166667                 10                       66.13898292136619        65.2023351798752         63.63071343618771        61.901227930885234       61.27854419271291        63.51438544867987        71.71269764524072        93.04179323004549        153.45867016588974       562.5187198757426        160.436822652502         100.2922980295873        79.39528837301992        69.2622781664392         63.32860885101992        58.771890667637464
0.166667                 11                       73.72744621964718        71.76757613028677        68.48678471646008        64.45765412559706        61.1532202063676         59.929319232216336       62.4519504170904         71.85908638208952        94.97198454540951        160.4368238823636        573.9786031030259        168.5871370910223        109.27434456125404       87.26642698402924        76.29523171285443        68.90254304689839
0.166667                 12                       84.21891882749372        80.92023500295402        75.52598712100323        68.88524178092092        62.95206191034511        59.02953434184028        58.170889026424035       62.23261196666559        73.79464749515337        100.29229942976102       168.58713937861523       587.9606095332138        182.74180668241058       119.67212170466689       96.48498839457166        83.55881364602342
0.166667                 13                       95.34770246350821        90.53352996931733        82.89152487441318        73.65704149330688        65.35680308311932        59.33613725706628        56.29963689057279        57.56630807061114        64.32817766797179        79.39528907473677        109.2743468967313        182.7418059809889        595.3816795935473        190.40474954250402       128.1507063308345        103.06373687994906
0.166667                 14                       105.26347348589222       98.95025241225525        89.2243938496736         77.70849950377415        67.44514629487631        59.820065393907534       55.289352415805865       54.863761494590946       59.11033580784835        69.2622760000414         87.26642398508635        119.67212066499947       190.404749927936         603.6210863493126        197.6191426498897        132.87695389885099
0.166667                 15                       112.20455176071829       104.70504824946224       93.41834341988009        80.25133127311445        68.60653213146284        59.89325987715315        54.3969411285923         52.92582544381855        55.7147139769561         63.32860920657628        76.29523253560845        96.48498951424867        128.15070747107757       197.61914227998676       605.9080072020187        196.94906980150694
0.166667                 16                       114.76721254686923       106.70022767546554       94.65870141311184        80.6745241153193         68.325776905792          59.044366827700166       53.02139163158358        50.916965257804776       52.761903902688196       58.77189214529552        68.90254412937774        83.55881174523874        103.06373635706045       132.87695423514265       196.94906862542172       607.5885857751103
0.010753                 1                        2162.793837026025        1691.0121768551737       1498.9874784086135       1340.3659797467535       1203.153397600518        1086.1832548799093       990.9105712214224        920.6357559383912        872.2229625110364        840.7822489312598        822.4300885012336        812.1722020173257        805.7436022158544        798.6105191102241        787.7623405683216        770.0412643227332
0.010753                 2                        1691.0121843329416       2081.1672127314623       1584.3627083452707       1386.6041286735501       1233.6511370433407       1107.0662485052194       1004.9763117462659       929.4141988910026        876.4861758443193        840.8865978459584        818.7475531132537        805.0208992560381        795.6107011770155        786.0229262279647        773.517429254008         755.1271156093715
0.010753                 3                        1498.9874855011053       1584.3627147621735       1977.4534202170141       1464.45142025026         1274.0348518974386       1133.630514204032        1022.9813786095763       940.9708501964947        882.5839408448065        841.9851768620836        815.3139564245585        797.4475310116034        784.473585000271         771.9101018234192        757.2976578358122        737.8437611298178
0.010753                 4                        1340.3659888299192       1386.6041402827022       1464.451426301674        1859.7351032949425       1351.1845553675978       1172.7725925582895       1048.5628663381729       957.9626063345665        892.6464125536608        845.8462271781387        813.6473133552959        790.8006231503083        773.5693879653113        757.4208339168825        740.1625562109889        719.1313286137186
0.010753                 5                        1203.1534009001255       1233.6511420734782       1274.0348553297645       1351.1845514877598       1757.1231578551376       1254.2338402048842       1090.4166144854792       985.6099353535634        910.8434836887727        856.1316226465376        817.1271621721675        788.3012835040532        766.0307414664044        745.621842905853         725.1099326046159        701.8934527353055
0.010753                 6                        1086.1832441609163       1107.0662489877232       1133.6305069498326       1172.772573844299        1254.233831241135        1683.7317692211657       1180.4759351887437       1034.1244072309205       943.6020158283511        878.1574763101743        830.5763881289232        794.4902442055223        766.2151959984317        740.7274083041201        716.2334590142129        690.1119337452379
0.010753                 7                        990.9105817934806        1004.9763315444428       1022.981390398192        1048.5628646729986       1090.416625953409        1180.475952472115        1622.9375299492583       1135.6882393354933       1000.5156069657921       917.7833607674349        858.9456725727264        813.9661131353854        778.5246984542313        746.9897448078196        717.65785125967          687.7913508343468
0.010753                 8                        920.6357434764569        929.414197445741         940.9708371278017        957.9625838903474        985.6099223806648        1034.1243988847173       1135.6882131029304       1602.1738344377045       1111.4279809566465       982.148548022083         906.0456807421187        849.9225209081637        806.0181637612196        767.4224521452174        732.3643476272468        697.8702455163929
0.010753                 9                        872.2229697177113        876.4861938821366        882.5839497264128        892.6464123684302        910.8434952809168        943.60203165554          1000.5156056940721       1111.4280013667167       1588.4436502596805       1100.157113101271        978.1042931485082        904.917950965413         850.3600986470925        803.3008045299846        761.3895037614245        721.2149127564965
0.010753                 10                       840.7822581053864        840.8866126752231        841.9851807532208        845.8462256895576        856.1316331087463        878.1574901762535        917.7833619654499        982.1485729381387        1100.1571165642015       1593.4350066882516       1106.2520551820417       985.8129466216822        914.3237277918969        856.2071579837435        805.7548771793374        758.4808701568459
0.010753                 11                       822.4300977203037        818.7475686846161        815.3139628521878        813.6473130180214        817.1271725654295        830.5764019336381        858.9456714732902        906.0457016253857        978.1042958994437        1106.2520564362062       1600.006934714675        1117.4745527190573       1000.0888939278634       924.6879611919361        863.3624937812882        807.4833045832942
0.010753                 12                       812.172205591879         805.020906572257         797.4475303780893        790.8006171282416        788.3012874958048        794.4902510102395        813.9661061645284        849.9225358327062        904.9179486511314        985.8129391596424        1117.4745447359887       1612.7920093139478       1136.6570686780935       1012.7756703174241       934.1328813680964        867.2134017246238
0.010753                 13                       805.7436051914515        795.6107088212859        784.4735801643036        773.5693794991042        766.0307400986193        766.2151951876301        778.5246886367638        806.0181743794838        850.3600924949473        914.3237189453714        1000.0888817633436       1136.6570651066984       1618.8025227491573       1143.6081621194091       1018.7709722080539       934.9345603010976
0.010753                 14                       798.6105301359257        786.0229418026324        771.9101045184092        757.4208335540807        745.6218488079132        740.727416018915         746.989741439276         767.4224682459114        803.300803322907         856.2071545255114        924.6879518975115        1012.775671118355        1143.6081662718611       1623.1255075474376       1148.0134683652648       1017.2468438149322
0.010753                 15                       787.7623539134254        773.5174490504869        757.2976676489659        740.1625622918582        725.1099469488306        716.2334752367603        717.6578545661447        732.3643708732917        761.3895112900714        805.7548796583416        863.3624922244093        934.1328892848567        1018.7709835483403       1148.0134766783283       1619.021860114444        1138.74835272295
0.010753                 16                       770.0412771657336        755.1271328046637        737.8437633026256        719.1313279926054        701.893456591622         690.1119421509485        687.7913481423717        697.8702625522815        721.2149150066081        758.4808708682576        807.4833037023665        867.2134072288707        934.9345710998072        1017.2468550989378       1138.7483528376981       1608.8486343663003
0.003759                 1                        4167.144854087441        3644.890518346522        3397.678189067327        3182.4223101580574       2988.342886037315        2814.6114921355265       2663.5727224907564       2540.463746946641        2442.268030562574        2363.196814806846        2300.8610656082656       2249.6047844211093       2206.0754707934316       2164.043248460399        2121.716352920697        2075.6116989111356
0.003759                 2                        3644.8905137479305       4011.6603303488528       3471.9667408048294       3224.038328541546        3017.95746750132         2836.6606600154887       2679.833700392829        2551.9002866719175       2449.3999355153396       2366.30195641318         2300.3160236183544       2245.7599714651633       2199.411615826923        2155.0007200048112       2110.906894304432        2063.721295534307
0.003759                 3                        3397.6782383514615       3471.9667879333083       3845.8015594790786       3292.571547004372        3054.2982744840524       2862.3298266716483       2698.740442041594        2565.3759494787846       2458.061700657803        2370.4666484439863       2300.402045084755        2242.15135954534         2192.6311428399267       2145.5118173867872       2099.350744619784        2050.803862768736
0.003759                 4                        3182.4223591051987       3224.0383724801527       3292.571539498048        3670.142227769142        3122.415749192046        2897.281912665761        2723.196961053265        2583.157877002903        2470.2213414617268       2377.4454576517087       2302.7075869727905       2240.232897089934        2187.0779178416233       2136.8183461927692       2088.1888031008943       2037.8879903255804
0.003759                 5                        2988.342914881841        3017.9574910053066       3054.298243677907        3122.4157343303          3511.305306292172        2969.6445144028794       2760.9369689966356       2610.0516878478047       2489.9762081882973       2391.022474968458        2310.823115182442        2243.456694778188        2186.0982984109673       2132.1714144471307       2080.5796646847425       2028.0324713444388
0.003759                 6                        2814.611536314243        2836.6606948167337       2862.3298293720286       2897.2819046909985       2969.644521298625        3383.0864098494662       2842.6269426624904       2655.5948531871977       2523.618512452034        2416.7018255405574       2329.9243039849302       2256.791970273774        2194.508390411576        2136.255747224785        2081.0931217089083       2025.701456432934
0.003759                 7                        2663.5728090724087       2679.8337871290673       2698.7404840400454       2723.19699168336         2760.9370159698974       2842.6269977069155       3271.4305235059687       2751.0057378809643       2580.086232641028        2460.103349450678        2364.967449379229        2284.9799299363162       2216.93470040475         2153.608779003946        2094.189248175946        2035.2818758823955
0.003759                 8                        2540.4638027269793       2551.9003433752564       2565.375965986676        2583.1578934219483       2610.0517158844623       2655.59487489395         2751.0057092778925       3207.814016371256        2688.2784436111688       2527.396566196217        2419.0429252897916       2330.6628738232052       2255.9918754686873       2186.883826489914        2122.5632321752387       2059.5000508820167
0.003759                 9                        2442.267965906804        2449.3998660043353       2458.0616061869423       2470.221244256348        2489.9761217698583       2523.618419184118        2580.0861005692036       2688.2783411239757       3159.472244561729        2646.1858787994033       2497.1669106474847       2395.5442125899813       2312.7571457373697       2236.96907999287         2167.0140238075705       2099.0988673512384
0.003759                 10                       2363.1967894663726       2366.3019313143495       2370.4665981711387       2377.4454015307792       2391.022427199295        2416.7017686644904       2460.103262328423        2527.396505473876        2646.18592062173         3136.879863941988        2628.9108849964223       2485.1674835602025       2389.1291440810774       2304.9209763055687       2228.289068962954        2154.64438685923
0.003759                 11                       2300.8609893042867       2300.315936344769        2300.4019379392716       2302.7074694736584       2310.8229968557544       2329.924174410301        2364.967291865334        2419.0427969557622       2497.166890867817        2628.9108296326617       3122.26511978923         2622.451809664342        2485.3153508714286       2387.560805859474        2302.7640468781165       2222.5642338701637
0.003759                 12                       2249.604813022972        2245.759986956311        2242.151361566251        2240.2328873721854       2243.4566863991486       2256.7919625246977       2284.979886493581        2330.662846483892        2395.5442870723864       2485.1675152158446       2622.451894343995        3119.086818624251        2629.063733799864        2487.713769327648        2389.415507534547        2301.10823376305
0.003759                 13                       2206.0754610409113       2199.4116000304866       2192.6311143973912       2187.0778607817792       2186.098253974309        2194.5083355071083       2216.934624027391        2255.991808280807        2312.757175565722        2389.129120328972        2485.3153779039476       2629.0636761262567       3114.0694758487543       2627.3335753747315       2487.561463814456        2386.2012687300753
0.003759                 14                       2164.0432786044103       2155.000747875178        2145.5118364035466       2136.8183376461398       2132.1714167999426       2136.255739568786        2153.608733411998        2186.883802580413        2236.969150837761        2304.9210002691702       2387.5608870786364       2487.7137656009077       2627.3336298731106       3111.7737709967782       2627.8815084306784       2484.4897123858177
0.003759                 15                       2121.7163566491663       2110.9068979693193       2099.350739396078        2088.188770645178        2080.579639945926        2081.0930928607227       2094.189193425325        2122.5631905145647       2167.014082594884        2228.289083205462        2302.7641074779544       2389.415494161076        2487.561504432788        2627.881494228426        3105.996573592974        2619.35648878133
0.003759                 16                       2075.611796236613        2063.721393939095        2050.803951829917        2037.8880503878124       2028.032542618343        2025.701520619432        2035.2819124009297       2059.5000953499275       2099.0990078561094       2154.6444844916614       2222.564376031545        2301.1082993709583       2386.2013860038187       2484.489776007853        2619.3565604279534       3099.072901146704
